REMARK SMILES CC(C)c1nc(CN(C)C(=O)N[C@@H](CCN2CCOCC2)C(=O)N[C@H](CC[C@H](Cc2ccccc2)NC(=O)OCc2cncs2)Cc2ccccc2)cs1
REMARK SMILES IDX 25 1 24 2 22 3 23 4 13 6 12 7 10 8 11 9 8 11 9 12 7 13 6 14
REMARK SMILES IDX 4 15 5 16 54 17 53 18 2 19 1 20 3 21 14 22 15 23 16 24 17 25
REMARK SMILES IDX 21 26 18 27 20 28 19 29 26 30 27 31 28 32 29 33 30 34 31 35
REMARK SMILES IDX 35 36 32 37 34 38 33 39 36 40 37 41 38 43 39 44 40 45 41 46
REMARK SMILES IDX 42 47 45 48 43 49 44 50 46 51 47 52 48 53 52 54 49 55 51 56
REMARK SMILES IDX 50 57
REMARK H PARENT 24 5 12 10 36 42
REMARK Flexibility Score: inf
ROOT
ATOM      1  C   UNL     1      -8.810   1.498  -2.662  1.00  0.00     0.086 C 
ENDROOT
BRANCH   1   2
ATOM      2  N   UNL     1      -8.782   0.237  -3.355  1.00  0.00    -0.351 N 
ATOM      3  C   UNL     1      -9.358   0.013  -4.576  1.00  0.00     0.242 C 
ATOM      4  O   UNL     1     -10.211   0.815  -5.029  1.00  0.00    -0.273 OA
ATOM      5  H   UNL     1      -8.316  -0.562  -2.949  1.00  0.00     0.163 HD
BRANCH   3   6
ATOM      6  C   UNL     1      -8.895  -1.091  -5.459  1.00  0.00     0.174 C 
BRANCH   6   7
ATOM      7  N   UNL     1      -7.465  -1.000  -5.588  1.00  0.00    -0.326 N 
ATOM      8  C   UNL     1      -6.483  -1.548  -4.803  1.00  0.00     0.318 C 
ATOM      9  O   UNL     1      -6.824  -2.292  -3.852  1.00  0.00    -0.249 OA
ATOM     10  H   UNL     1      -7.088  -0.464  -6.357  1.00  0.00     0.166 HD
BRANCH   8  11
ATOM     11  N   UNL     1      -5.139  -1.277  -5.036  1.00  0.00    -0.322 N 
ATOM     12  C   UNL     1      -4.117  -1.953  -4.260  1.00  0.00     0.149 C 
BRANCH  11  13
ATOM     13  C   UNL     1      -4.776  -0.282  -6.040  1.00  0.00     0.178 C 
BRANCH  13  14
ATOM     14  C   UNL     1      -3.341  -0.027  -6.328  1.00  0.00     0.071 A 
ATOM     15  C   UNL     1      -1.179   0.558  -5.707  1.00  0.00     0.095 A 
ATOM     16  N   UNL     1      -2.473   0.374  -5.355  1.00  0.00    -0.244 NA
ATOM     17  S   UNL     1      -1.078   0.218  -7.427  1.00  0.00    -0.127 S 
ATOM     18  C   UNL     1      -2.772  -0.186  -7.602  1.00  0.00     0.092 A 
BRANCH  15  19
ATOM     19  C   UNL     1      -0.041   0.861  -4.811  1.00  0.00     0.042 C 
ATOM     20  C   UNL     1       0.424  -0.435  -4.099  1.00  0.00     0.015 C 
ATOM     21  C   UNL     1      -0.371   1.985  -3.796  1.00  0.00     0.015 C 
ENDBRANCH  15  19
ENDBRANCH  13  14
ENDBRANCH  11  13
ENDBRANCH   8  11
ENDBRANCH   6   7
BRANCH   6  22
ATOM     22  C   UNL     1      -9.498  -2.501  -5.165  1.00  0.00     0.050 C 
BRANCH  22  23
ATOM     23  C   UNL     1      -9.101  -3.530  -6.270  1.00  0.00     0.087 C 
BRANCH  23  24
ATOM     24  N   UNL     1      -9.520  -4.948  -6.016  1.00  0.00    -0.299 NA
ATOM     25  C   UNL     1      -8.714  -5.612  -4.940  1.00  0.00     0.113 C 
ATOM     26  C   UNL     1      -9.531  -5.768  -7.275  1.00  0.00     0.113 C 
ATOM     27  C   UNL     1      -9.152  -7.082  -4.731  1.00  0.00     0.175 C 
ATOM     28  C   UNL     1      -9.951  -7.231  -6.992  1.00  0.00     0.175 C 
ATOM     29  O   UNL     1      -9.117  -7.813  -5.971  1.00  0.00    -0.379 OA
ENDBRANCH  23  24
ENDBRANCH  22  23
ENDBRANCH   6  22
ENDBRANCH   3   6
ENDBRANCH   1   2
BRANCH   1  30
ATOM     30  C   UNL     1      -7.551   1.646  -1.737  1.00  0.00     0.027 C 
BRANCH  30  31
ATOM     31  C   UNL     1      -7.074   3.119  -1.565  1.00  0.00     0.027 C 
BRANCH  31  32
ATOM     32  C   UNL     1      -6.043   3.341  -0.420  1.00  0.00     0.090 C 
BRANCH  32  33
ATOM     33  C   UNL     1      -5.705   4.857  -0.270  1.00  0.00     0.060 C 
BRANCH  33  34
ATOM     34  C   UNL     1      -4.747   5.134   0.835  1.00  0.00    -0.046 A 
ATOM     35  C   UNL     1      -3.422   5.559   0.570  1.00  0.00     0.004 A 
ATOM     36  C   UNL     1      -5.146   4.966   2.183  1.00  0.00     0.004 A 
ATOM     37  C   UNL     1      -2.523   5.805   1.625  1.00  0.00     0.000 A 
ATOM     38  C   UNL     1      -4.248   5.213   3.237  1.00  0.00     0.000 A 
ATOM     39  C   UNL     1      -2.933   5.626   2.958  1.00  0.00     0.000 A 
ENDBRANCH  33  34
ENDBRANCH  32  33
BRANCH  32  40
ATOM     40  N   UNL     1      -4.817   2.627  -0.662  1.00  0.00    -0.318 N 
ATOM     41  C   UNL     1      -4.177   1.818   0.224  1.00  0.00     0.407 C 
ATOM     42  H   UNL     1      -4.354   2.704  -1.556  1.00  0.00     0.167 HD
ATOM     43  O   UNL     1      -4.678   1.514   1.335  1.00  0.00    -0.225 OA
BRANCH  41  44
ATOM     44  O   UNL     1      -2.918   1.406  -0.109  1.00  0.00    -0.444 OA
BRANCH  44  45
ATOM     45  C   UNL     1      -2.045   0.632   0.726  1.00  0.00     0.283 C 
BRANCH  45  46
ATOM     46  C   UNL     1      -0.672   0.673   0.204  1.00  0.00     0.062 A 
ATOM     47  C   UNL     1       0.148  -0.397  -0.182  1.00  0.00     0.130 A 
ATOM     48  S   UNL     1       0.321   2.104  -0.008  1.00  0.00    -0.124 S 
ATOM     49  N   UNL     1       1.406  -0.083  -0.598  1.00  0.00    -0.253 NA
ATOM     50  C   UNL     1       1.726   1.229  -0.588  1.00  0.00     0.175 A 
ENDBRANCH  45  46
ENDBRANCH  44  45
ENDBRANCH  41  44
ENDBRANCH  32  40
ENDBRANCH  31  32
ENDBRANCH  30  31
ENDBRANCH   1  30
BRANCH   1  51
ATOM     51  C   UNL     1     -10.214   1.794  -1.960  1.00  0.00     0.060 C 
BRANCH  51  52
ATOM     52  C   UNL     1     -10.465   0.973  -0.741  1.00  0.00    -0.046 A 
ATOM     53  C   UNL     1     -10.851  -0.384  -0.856  1.00  0.00     0.004 A 
ATOM     54  C   UNL     1     -10.331   1.528   0.556  1.00  0.00     0.004 A 
ATOM     55  C   UNL     1     -11.081  -1.169   0.290  1.00  0.00     0.000 A 
ATOM     56  C   UNL     1     -10.557   0.743   1.702  1.00  0.00     0.000 A 
ATOM     57  C   UNL     1     -10.928  -0.608   1.571  1.00  0.00     0.000 A 
ENDBRANCH  51  52
ENDBRANCH   1  51
TORSDOF 21
